1.699500499999999903e+01 0.000000000000000000e+00 0.000000000000000000e+00 0.000000000000000000e+00 1.699500499999999903e+01 0.000000000000000000e+00 0.000000000000000000e+00 0.000000000000000000e+00 1.699500499999999903e+01
1.697505100000000056e+01 0.000000000000000000e+00 0.000000000000000000e+00 0.000000000000000000e+00 1.697505100000000056e+01 0.000000000000000000e+00 0.000000000000000000e+00 0.000000000000000000e+00 1.697505100000000056e+01
1.698386999999999958e+01 0.000000000000000000e+00 0.000000000000000000e+00 0.000000000000000000e+00 1.698386999999999958e+01 0.000000000000000000e+00 0.000000000000000000e+00 0.000000000000000000e+00 1.698386999999999958e+01
1.712249299999999863e+01 0.000000000000000000e+00 0.000000000000000000e+00 0.000000000000000000e+00 1.712249299999999863e+01 0.000000000000000000e+00 0.000000000000000000e+00 0.000000000000000000e+00 1.712249299999999863e+01
1.719509800000000155e+01 0.000000000000000000e+00 0.000000000000000000e+00 0.000000000000000000e+00 1.719509800000000155e+01 0.000000000000000000e+00 0.000000000000000000e+00 0.000000000000000000e+00 1.719509800000000155e+01
1.724792100000000161e+01 0.000000000000000000e+00 0.000000000000000000e+00 0.000000000000000000e+00 1.724792100000000161e+01 0.000000000000000000e+00 0.000000000000000000e+00 0.000000000000000000e+00 1.724792100000000161e+01
1.717241100000000031e+01 0.000000000000000000e+00 0.000000000000000000e+00 0.000000000000000000e+00 1.717241100000000031e+01 0.000000000000000000e+00 0.000000000000000000e+00 0.000000000000000000e+00 1.717241100000000031e+01
1.720195999999999970e+01 0.000000000000000000e+00 0.000000000000000000e+00 0.000000000000000000e+00 1.720195999999999970e+01 0.000000000000000000e+00 0.000000000000000000e+00 0.000000000000000000e+00 1.720195999999999970e+01
1.711539600000000050e+01 0.000000000000000000e+00 0.000000000000000000e+00 0.000000000000000000e+00 1.711539600000000050e+01 0.000000000000000000e+00 0.000000000000000000e+00 0.000000000000000000e+00 1.711539600000000050e+01
1.712436800000000048e+01 0.000000000000000000e+00 0.000000000000000000e+00 0.000000000000000000e+00 1.712436800000000048e+01 0.000000000000000000e+00 0.000000000000000000e+00 0.000000000000000000e+00 1.712436800000000048e+01
1.724247199999999935e+01 0.000000000000000000e+00 0.000000000000000000e+00 0.000000000000000000e+00 1.724247199999999935e+01 0.000000000000000000e+00 0.000000000000000000e+00 0.000000000000000000e+00 1.724247199999999935e+01
1.740698400000000134e+01 0.000000000000000000e+00 0.000000000000000000e+00 0.000000000000000000e+00 1.740698400000000134e+01 0.000000000000000000e+00 0.000000000000000000e+00 0.000000000000000000e+00 1.740698400000000134e+01
1.732011100000000070e+01 0.000000000000000000e+00 0.000000000000000000e+00 0.000000000000000000e+00 1.732011100000000070e+01 0.000000000000000000e+00 0.000000000000000000e+00 0.000000000000000000e+00 1.732011100000000070e+01
1.736481699999999861e+01 0.000000000000000000e+00 0.000000000000000000e+00 0.000000000000000000e+00 1.736481699999999861e+01 0.000000000000000000e+00 0.000000000000000000e+00 0.000000000000000000e+00 1.736481699999999861e+01
1.748967400000000083e+01 0.000000000000000000e+00 0.000000000000000000e+00 0.000000000000000000e+00 1.748967400000000083e+01 0.000000000000000000e+00 0.000000000000000000e+00 0.000000000000000000e+00 1.748967400000000083e+01
1.731449900000000142e+01 0.000000000000000000e+00 0.000000000000000000e+00 0.000000000000000000e+00 1.731449900000000142e+01 0.000000000000000000e+00 0.000000000000000000e+00 0.000000000000000000e+00 1.731449900000000142e+01
1.739587500000000020e+01 0.000000000000000000e+00 0.000000000000000000e+00 0.000000000000000000e+00 1.739587500000000020e+01 0.000000000000000000e+00 0.000000000000000000e+00 0.000000000000000000e+00 1.739587500000000020e+01
1.752269199999999927e+01 0.000000000000000000e+00 0.000000000000000000e+00 0.000000000000000000e+00 1.752269199999999927e+01 0.000000000000000000e+00 0.000000000000000000e+00 0.000000000000000000e+00 1.752269199999999927e+01
1.753582700000000116e+01 0.000000000000000000e+00 0.000000000000000000e+00 0.000000000000000000e+00 1.753582700000000116e+01 0.000000000000000000e+00 0.000000000000000000e+00 0.000000000000000000e+00 1.753582700000000116e+01
1.760904499999999828e+01 0.000000000000000000e+00 0.000000000000000000e+00 0.000000000000000000e+00 1.760904499999999828e+01 0.000000000000000000e+00 0.000000000000000000e+00 0.000000000000000000e+00 1.760904499999999828e+01
1.757636899999999969e+01 0.000000000000000000e+00 0.000000000000000000e+00 0.000000000000000000e+00 1.757636899999999969e+01 0.000000000000000000e+00 0.000000000000000000e+00 0.000000000000000000e+00 1.757636899999999969e+01
1.759711199999999920e+01 0.000000000000000000e+00 0.000000000000000000e+00 0.000000000000000000e+00 1.759711199999999920e+01 0.000000000000000000e+00 0.000000000000000000e+00 0.000000000000000000e+00 1.759711199999999920e+01
1.766338100000000111e+01 0.000000000000000000e+00 0.000000000000000000e+00 0.000000000000000000e+00 1.766338100000000111e+01 0.000000000000000000e+00 0.000000000000000000e+00 0.000000000000000000e+00 1.766338100000000111e+01
1.760832600000000170e+01 0.000000000000000000e+00 0.000000000000000000e+00 0.000000000000000000e+00 1.760832600000000170e+01 0.000000000000000000e+00 0.000000000000000000e+00 0.000000000000000000e+00 1.760832600000000170e+01
1.739661399999999958e+01 0.000000000000000000e+00 0.000000000000000000e+00 0.000000000000000000e+00 1.739661399999999958e+01 0.000000000000000000e+00 0.000000000000000000e+00 0.000000000000000000e+00 1.739661399999999958e+01
1.745262299999999911e+01 0.000000000000000000e+00 0.000000000000000000e+00 0.000000000000000000e+00 1.745262299999999911e+01 0.000000000000000000e+00 0.000000000000000000e+00 0.000000000000000000e+00 1.745262299999999911e+01
1.742099199999999826e+01 0.000000000000000000e+00 0.000000000000000000e+00 0.000000000000000000e+00 1.742099199999999826e+01 0.000000000000000000e+00 0.000000000000000000e+00 0.000000000000000000e+00 1.742099199999999826e+01
1.734624700000000175e+01 0.000000000000000000e+00 0.000000000000000000e+00 0.000000000000000000e+00 1.734624700000000175e+01 0.000000000000000000e+00 0.000000000000000000e+00 0.000000000000000000e+00 1.734624700000000175e+01
1.741623999999999839e+01 0.000000000000000000e+00 0.000000000000000000e+00 0.000000000000000000e+00 1.741623999999999839e+01 0.000000000000000000e+00 0.000000000000000000e+00 0.000000000000000000e+00 1.741623999999999839e+01
1.746789899999999918e+01 0.000000000000000000e+00 0.000000000000000000e+00 0.000000000000000000e+00 1.746789899999999918e+01 0.000000000000000000e+00 0.000000000000000000e+00 0.000000000000000000e+00 1.746789899999999918e+01
1.745098899999999986e+01 0.000000000000000000e+00 0.000000000000000000e+00 0.000000000000000000e+00 1.745098899999999986e+01 0.000000000000000000e+00 0.000000000000000000e+00 0.000000000000000000e+00 1.745098899999999986e+01
1.747978499999999968e+01 0.000000000000000000e+00 0.000000000000000000e+00 0.000000000000000000e+00 1.747978499999999968e+01 0.000000000000000000e+00 0.000000000000000000e+00 0.000000000000000000e+00 1.747978499999999968e+01
1.751291799999999910e+01 0.000000000000000000e+00 0.000000000000000000e+00 0.000000000000000000e+00 1.751291799999999910e+01 0.000000000000000000e+00 0.000000000000000000e+00 0.000000000000000000e+00 1.751291799999999910e+01
1.761479200000000134e+01 0.000000000000000000e+00 0.000000000000000000e+00 0.000000000000000000e+00 1.761479200000000134e+01 0.000000000000000000e+00 0.000000000000000000e+00 0.000000000000000000e+00 1.761479200000000134e+01
1.763149699999999953e+01 0.000000000000000000e+00 0.000000000000000000e+00 0.000000000000000000e+00 1.763149699999999953e+01 0.000000000000000000e+00 0.000000000000000000e+00 0.000000000000000000e+00 1.763149699999999953e+01
1.771524199999999993e+01 0.000000000000000000e+00 0.000000000000000000e+00 0.000000000000000000e+00 1.771524199999999993e+01 0.000000000000000000e+00 0.000000000000000000e+00 0.000000000000000000e+00 1.771524199999999993e+01
1.765764499999999870e+01 0.000000000000000000e+00 0.000000000000000000e+00 0.000000000000000000e+00 1.765764499999999870e+01 0.000000000000000000e+00 0.000000000000000000e+00 0.000000000000000000e+00 1.765764499999999870e+01
1.774661400000000100e+01 0.000000000000000000e+00 0.000000000000000000e+00 0.000000000000000000e+00 1.774661400000000100e+01 0.000000000000000000e+00 0.000000000000000000e+00 0.000000000000000000e+00 1.774661400000000100e+01
1.775548600000000121e+01 0.000000000000000000e+00 0.000000000000000000e+00 0.000000000000000000e+00 1.775548600000000121e+01 0.000000000000000000e+00 0.000000000000000000e+00 0.000000000000000000e+00 1.775548600000000121e+01
1.776341800000000148e+01 0.000000000000000000e+00 0.000000000000000000e+00 0.000000000000000000e+00 1.776341800000000148e+01 0.000000000000000000e+00 0.000000000000000000e+00 0.000000000000000000e+00 1.776341800000000148e+01
1.774969099999999855e+01 0.000000000000000000e+00 0.000000000000000000e+00 0.000000000000000000e+00 1.774969099999999855e+01 0.000000000000000000e+00 0.000000000000000000e+00 0.000000000000000000e+00 1.774969099999999855e+01
1.773008899999999954e+01 0.000000000000000000e+00 0.000000000000000000e+00 0.000000000000000000e+00 1.773008899999999954e+01 0.000000000000000000e+00 0.000000000000000000e+00 0.000000000000000000e+00 1.773008899999999954e+01
1.771072799999999958e+01 0.000000000000000000e+00 0.000000000000000000e+00 0.000000000000000000e+00 1.771072799999999958e+01 0.000000000000000000e+00 0.000000000000000000e+00 0.000000000000000000e+00 1.771072799999999958e+01
1.773521799999999971e+01 0.000000000000000000e+00 0.000000000000000000e+00 0.000000000000000000e+00 1.773521799999999971e+01 0.000000000000000000e+00 0.000000000000000000e+00 0.000000000000000000e+00 1.773521799999999971e+01
1.771477000000000146e+01 0.000000000000000000e+00 0.000000000000000000e+00 0.000000000000000000e+00 1.771477000000000146e+01 0.000000000000000000e+00 0.000000000000000000e+00 0.000000000000000000e+00 1.771477000000000146e+01
1.766704800000000120e+01 0.000000000000000000e+00 0.000000000000000000e+00 0.000000000000000000e+00 1.766704800000000120e+01 0.000000000000000000e+00 0.000000000000000000e+00 0.000000000000000000e+00 1.766704800000000120e+01
1.764065599999999989e+01 0.000000000000000000e+00 0.000000000000000000e+00 0.000000000000000000e+00 1.764065599999999989e+01 0.000000000000000000e+00 0.000000000000000000e+00 0.000000000000000000e+00 1.764065599999999989e+01
1.769233300000000142e+01 0.000000000000000000e+00 0.000000000000000000e+00 0.000000000000000000e+00 1.769233300000000142e+01 0.000000000000000000e+00 0.000000000000000000e+00 0.000000000000000000e+00 1.769233300000000142e+01
1.758547599999999989e+01 0.000000000000000000e+00 0.000000000000000000e+00 0.000000000000000000e+00 1.758547599999999989e+01 0.000000000000000000e+00 0.000000000000000000e+00 0.000000000000000000e+00 1.758547599999999989e+01
1.770215100000000064e+01 0.000000000000000000e+00 0.000000000000000000e+00 0.000000000000000000e+00 1.770215100000000064e+01 0.000000000000000000e+00 0.000000000000000000e+00 0.000000000000000000e+00 1.770215100000000064e+01
1.768182399999999888e+01 0.000000000000000000e+00 0.000000000000000000e+00 0.000000000000000000e+00 1.768182399999999888e+01 0.000000000000000000e+00 0.000000000000000000e+00 0.000000000000000000e+00 1.768182399999999888e+01
1.775734999999999886e+01 0.000000000000000000e+00 0.000000000000000000e+00 0.000000000000000000e+00 1.775734999999999886e+01 0.000000000000000000e+00 0.000000000000000000e+00 0.000000000000000000e+00 1.775734999999999886e+01
1.775390900000000016e+01 0.000000000000000000e+00 0.000000000000000000e+00 0.000000000000000000e+00 1.775390900000000016e+01 0.000000000000000000e+00 0.000000000000000000e+00 0.000000000000000000e+00 1.775390900000000016e+01
1.779484000000000066e+01 0.000000000000000000e+00 0.000000000000000000e+00 0.000000000000000000e+00 1.779484000000000066e+01 0.000000000000000000e+00 0.000000000000000000e+00 0.000000000000000000e+00 1.779484000000000066e+01
1.779472200000000015e+01 0.000000000000000000e+00 0.000000000000000000e+00 0.000000000000000000e+00 1.779472200000000015e+01 0.000000000000000000e+00 0.000000000000000000e+00 0.000000000000000000e+00 1.779472200000000015e+01
1.770870999999999995e+01 0.000000000000000000e+00 0.000000000000000000e+00 0.000000000000000000e+00 1.770870999999999995e+01 0.000000000000000000e+00 0.000000000000000000e+00 0.000000000000000000e+00 1.770870999999999995e+01
1.769854600000000033e+01 0.000000000000000000e+00 0.000000000000000000e+00 0.000000000000000000e+00 1.769854600000000033e+01 0.000000000000000000e+00 0.000000000000000000e+00 0.000000000000000000e+00 1.769854600000000033e+01
1.764793799999999990e+01 0.000000000000000000e+00 0.000000000000000000e+00 0.000000000000000000e+00 1.764793799999999990e+01 0.000000000000000000e+00 0.000000000000000000e+00 0.000000000000000000e+00 1.764793799999999990e+01
1.761592900000000128e+01 0.000000000000000000e+00 0.000000000000000000e+00 0.000000000000000000e+00 1.761592900000000128e+01 0.000000000000000000e+00 0.000000000000000000e+00 0.000000000000000000e+00 1.761592900000000128e+01
1.766695400000000049e+01 0.000000000000000000e+00 0.000000000000000000e+00 0.000000000000000000e+00 1.766695400000000049e+01 0.000000000000000000e+00 0.000000000000000000e+00 0.000000000000000000e+00 1.766695400000000049e+01
1.769149099999999919e+01 0.000000000000000000e+00 0.000000000000000000e+00 0.000000000000000000e+00 1.769149099999999919e+01 0.000000000000000000e+00 0.000000000000000000e+00 0.000000000000000000e+00 1.769149099999999919e+01
1.768118799999999879e+01 0.000000000000000000e+00 0.000000000000000000e+00 0.000000000000000000e+00 1.768118799999999879e+01 0.000000000000000000e+00 0.000000000000000000e+00 0.000000000000000000e+00 1.768118799999999879e+01
1.772791300000000092e+01 0.000000000000000000e+00 0.000000000000000000e+00 0.000000000000000000e+00 1.772791300000000092e+01 0.000000000000000000e+00 0.000000000000000000e+00 0.000000000000000000e+00 1.772791300000000092e+01
1.764958100000000130e+01 0.000000000000000000e+00 0.000000000000000000e+00 0.000000000000000000e+00 1.764958100000000130e+01 0.000000000000000000e+00 0.000000000000000000e+00 0.000000000000000000e+00 1.764958100000000130e+01
1.761432699999999940e+01 0.000000000000000000e+00 0.000000000000000000e+00 0.000000000000000000e+00 1.761432699999999940e+01 0.000000000000000000e+00 0.000000000000000000e+00 0.000000000000000000e+00 1.761432699999999940e+01
1.772979099999999875e+01 0.000000000000000000e+00 0.000000000000000000e+00 0.000000000000000000e+00 1.772979099999999875e+01 0.000000000000000000e+00 0.000000000000000000e+00 0.000000000000000000e+00 1.772979099999999875e+01
1.777645300000000006e+01 0.000000000000000000e+00 0.000000000000000000e+00 0.000000000000000000e+00 1.777645300000000006e+01 0.000000000000000000e+00 0.000000000000000000e+00 0.000000000000000000e+00 1.777645300000000006e+01
1.768139800000000150e+01 0.000000000000000000e+00 0.000000000000000000e+00 0.000000000000000000e+00 1.768139800000000150e+01 0.000000000000000000e+00 0.000000000000000000e+00 0.000000000000000000e+00 1.768139800000000150e+01
1.767299600000000126e+01 0.000000000000000000e+00 0.000000000000000000e+00 0.000000000000000000e+00 1.767299600000000126e+01 0.000000000000000000e+00 0.000000000000000000e+00 0.000000000000000000e+00 1.767299600000000126e+01
1.769979999999999976e+01 0.000000000000000000e+00 0.000000000000000000e+00 0.000000000000000000e+00 1.769979999999999976e+01 0.000000000000000000e+00 0.000000000000000000e+00 0.000000000000000000e+00 1.769979999999999976e+01
1.769959899999999919e+01 0.000000000000000000e+00 0.000000000000000000e+00 0.000000000000000000e+00 1.769959899999999919e+01 0.000000000000000000e+00 0.000000000000000000e+00 0.000000000000000000e+00 1.769959899999999919e+01
1.764035200000000003e+01 0.000000000000000000e+00 0.000000000000000000e+00 0.000000000000000000e+00 1.764035200000000003e+01 0.000000000000000000e+00 0.000000000000000000e+00 0.000000000000000000e+00 1.764035200000000003e+01
1.770578300000000027e+01 0.000000000000000000e+00 0.000000000000000000e+00 0.000000000000000000e+00 1.770578300000000027e+01 0.000000000000000000e+00 0.000000000000000000e+00 0.000000000000000000e+00 1.770578300000000027e+01
1.763922300000000121e+01 0.000000000000000000e+00 0.000000000000000000e+00 0.000000000000000000e+00 1.763922300000000121e+01 0.000000000000000000e+00 0.000000000000000000e+00 0.000000000000000000e+00 1.763922300000000121e+01
1.774697799999999859e+01 0.000000000000000000e+00 0.000000000000000000e+00 0.000000000000000000e+00 1.774697799999999859e+01 0.000000000000000000e+00 0.000000000000000000e+00 0.000000000000000000e+00 1.774697799999999859e+01
1.768755000000000166e+01 0.000000000000000000e+00 0.000000000000000000e+00 0.000000000000000000e+00 1.768755000000000166e+01 0.000000000000000000e+00 0.000000000000000000e+00 0.000000000000000000e+00 1.768755000000000166e+01
1.778662100000000024e+01 0.000000000000000000e+00 0.000000000000000000e+00 0.000000000000000000e+00 1.778662100000000024e+01 0.000000000000000000e+00 0.000000000000000000e+00 0.000000000000000000e+00 1.778662100000000024e+01
1.777792600000000078e+01 0.000000000000000000e+00 0.000000000000000000e+00 0.000000000000000000e+00 1.777792600000000078e+01 0.000000000000000000e+00 0.000000000000000000e+00 0.000000000000000000e+00 1.777792600000000078e+01
1.781831199999999882e+01 0.000000000000000000e+00 0.000000000000000000e+00 0.000000000000000000e+00 1.781831199999999882e+01 0.000000000000000000e+00 0.000000000000000000e+00 0.000000000000000000e+00 1.781831199999999882e+01
1.775650299999999859e+01 0.000000000000000000e+00 0.000000000000000000e+00 0.000000000000000000e+00 1.775650299999999859e+01 0.000000000000000000e+00 0.000000000000000000e+00 0.000000000000000000e+00 1.775650299999999859e+01
1.786904399999999882e+01 0.000000000000000000e+00 0.000000000000000000e+00 0.000000000000000000e+00 1.786904399999999882e+01 0.000000000000000000e+00 0.000000000000000000e+00 0.000000000000000000e+00 1.786904399999999882e+01
1.783566700000000083e+01 0.000000000000000000e+00 0.000000000000000000e+00 0.000000000000000000e+00 1.783566700000000083e+01 0.000000000000000000e+00 0.000000000000000000e+00 0.000000000000000000e+00 1.783566700000000083e+01
1.780540399999999934e+01 0.000000000000000000e+00 0.000000000000000000e+00 0.000000000000000000e+00 1.780540399999999934e+01 0.000000000000000000e+00 0.000000000000000000e+00 0.000000000000000000e+00 1.780540399999999934e+01
1.775592500000000129e+01 0.000000000000000000e+00 0.000000000000000000e+00 0.000000000000000000e+00 1.775592500000000129e+01 0.000000000000000000e+00 0.000000000000000000e+00 0.000000000000000000e+00 1.775592500000000129e+01
1.784950299999999856e+01 0.000000000000000000e+00 0.000000000000000000e+00 0.000000000000000000e+00 1.784950299999999856e+01 0.000000000000000000e+00 0.000000000000000000e+00 0.000000000000000000e+00 1.784950299999999856e+01
1.783772599999999997e+01 0.000000000000000000e+00 0.000000000000000000e+00 0.000000000000000000e+00 1.783772599999999997e+01 0.000000000000000000e+00 0.000000000000000000e+00 0.000000000000000000e+00 1.783772599999999997e+01
1.780157700000000176e+01 0.000000000000000000e+00 0.000000000000000000e+00 0.000000000000000000e+00 1.780157700000000176e+01 0.000000000000000000e+00 0.000000000000000000e+00 0.000000000000000000e+00 1.780157700000000176e+01
1.786560100000000162e+01 0.000000000000000000e+00 0.000000000000000000e+00 0.000000000000000000e+00 1.786560100000000162e+01 0.000000000000000000e+00 0.000000000000000000e+00 0.000000000000000000e+00 1.786560100000000162e+01
1.785209499999999849e+01 0.000000000000000000e+00 0.000000000000000000e+00 0.000000000000000000e+00 1.785209499999999849e+01 0.000000000000000000e+00 0.000000000000000000e+00 0.000000000000000000e+00 1.785209499999999849e+01
1.782460400000000078e+01 0.000000000000000000e+00 0.000000000000000000e+00 0.000000000000000000e+00 1.782460400000000078e+01 0.000000000000000000e+00 0.000000000000000000e+00 0.000000000000000000e+00 1.782460400000000078e+01
1.784989300000000156e+01 0.000000000000000000e+00 0.000000000000000000e+00 0.000000000000000000e+00 1.784989300000000156e+01 0.000000000000000000e+00 0.000000000000000000e+00 0.000000000000000000e+00 1.784989300000000156e+01
1.784253400000000056e+01 0.000000000000000000e+00 0.000000000000000000e+00 0.000000000000000000e+00 1.784253400000000056e+01 0.000000000000000000e+00 0.000000000000000000e+00 0.000000000000000000e+00 1.784253400000000056e+01
1.784801600000000121e+01 0.000000000000000000e+00 0.000000000000000000e+00 0.000000000000000000e+00 1.784801600000000121e+01 0.000000000000000000e+00 0.000000000000000000e+00 0.000000000000000000e+00 1.784801600000000121e+01
1.778621199999999902e+01 0.000000000000000000e+00 0.000000000000000000e+00 0.000000000000000000e+00 1.778621199999999902e+01 0.000000000000000000e+00 0.000000000000000000e+00 0.000000000000000000e+00 1.778621199999999902e+01
1.789245800000000131e+01 0.000000000000000000e+00 0.000000000000000000e+00 0.000000000000000000e+00 1.789245800000000131e+01 0.000000000000000000e+00 0.000000000000000000e+00 0.000000000000000000e+00 1.789245800000000131e+01
1.777914499999999975e+01 0.000000000000000000e+00 0.000000000000000000e+00 0.000000000000000000e+00 1.777914499999999975e+01 0.000000000000000000e+00 0.000000000000000000e+00 0.000000000000000000e+00 1.777914499999999975e+01
1.787403400000000175e+01 0.000000000000000000e+00 0.000000000000000000e+00 0.000000000000000000e+00 1.787403400000000175e+01 0.000000000000000000e+00 0.000000000000000000e+00 0.000000000000000000e+00 1.787403400000000175e+01
1.778406899999999879e+01 0.000000000000000000e+00 0.000000000000000000e+00 0.000000000000000000e+00 1.778406899999999879e+01 0.000000000000000000e+00 0.000000000000000000e+00 0.000000000000000000e+00 1.778406899999999879e+01
1.780201900000000137e+01 0.000000000000000000e+00 0.000000000000000000e+00 0.000000000000000000e+00 1.780201900000000137e+01 0.000000000000000000e+00 0.000000000000000000e+00 0.000000000000000000e+00 1.780201900000000137e+01
1.771842900000000043e+01 0.000000000000000000e+00 0.000000000000000000e+00 0.000000000000000000e+00 1.771842900000000043e+01 0.000000000000000000e+00 0.000000000000000000e+00 0.000000000000000000e+00 1.771842900000000043e+01
1.776116400000000084e+01 0.000000000000000000e+00 0.000000000000000000e+00 0.000000000000000000e+00 1.776116400000000084e+01 0.000000000000000000e+00 0.000000000000000000e+00 0.000000000000000000e+00 1.776116400000000084e+01
1.777935899999999947e+01 0.000000000000000000e+00 0.000000000000000000e+00 0.000000000000000000e+00 1.777935899999999947e+01 0.000000000000000000e+00 0.000000000000000000e+00 0.000000000000000000e+00 1.777935899999999947e+01
1.778104099999999832e+01 0.000000000000000000e+00 0.000000000000000000e+00 0.000000000000000000e+00 1.778104099999999832e+01 0.000000000000000000e+00 0.000000000000000000e+00 0.000000000000000000e+00 1.778104099999999832e+01
1.780584999999999951e+01 0.000000000000000000e+00 0.000000000000000000e+00 0.000000000000000000e+00 1.780584999999999951e+01 0.000000000000000000e+00 0.000000000000000000e+00 0.000000000000000000e+00 1.780584999999999951e+01
1.779499500000000012e+01 0.000000000000000000e+00 0.000000000000000000e+00 0.000000000000000000e+00 1.779499500000000012e+01 0.000000000000000000e+00 0.000000000000000000e+00 0.000000000000000000e+00 1.779499500000000012e+01
1.783076600000000056e+01 0.000000000000000000e+00 0.000000000000000000e+00 0.000000000000000000e+00 1.783076600000000056e+01 0.000000000000000000e+00 0.000000000000000000e+00 0.000000000000000000e+00 1.783076600000000056e+01
1.783212800000000087e+01 0.000000000000000000e+00 0.000000000000000000e+00 0.000000000000000000e+00 1.783212800000000087e+01 0.000000000000000000e+00 0.000000000000000000e+00 0.000000000000000000e+00 1.783212800000000087e+01
1.777719099999999841e+01 0.000000000000000000e+00 0.000000000000000000e+00 0.000000000000000000e+00 1.777719099999999841e+01 0.000000000000000000e+00 0.000000000000000000e+00 0.000000000000000000e+00 1.777719099999999841e+01
1.784122599999999892e+01 0.000000000000000000e+00 0.000000000000000000e+00 0.000000000000000000e+00 1.784122599999999892e+01 0.000000000000000000e+00 0.000000000000000000e+00 0.000000000000000000e+00 1.784122599999999892e+01
1.783229899999999901e+01 0.000000000000000000e+00 0.000000000000000000e+00 0.000000000000000000e+00 1.783229899999999901e+01 0.000000000000000000e+00 0.000000000000000000e+00 0.000000000000000000e+00 1.783229899999999901e+01
1.787630499999999856e+01 0.000000000000000000e+00 0.000000000000000000e+00 0.000000000000000000e+00 1.787630499999999856e+01 0.000000000000000000e+00 0.000000000000000000e+00 0.000000000000000000e+00 1.787630499999999856e+01
1.784259899999999988e+01 0.000000000000000000e+00 0.000000000000000000e+00 0.000000000000000000e+00 1.784259899999999988e+01 0.000000000000000000e+00 0.000000000000000000e+00 0.000000000000000000e+00 1.784259899999999988e+01
1.791977999999999938e+01 0.000000000000000000e+00 0.000000000000000000e+00 0.000000000000000000e+00 1.791977999999999938e+01 0.000000000000000000e+00 0.000000000000000000e+00 0.000000000000000000e+00 1.791977999999999938e+01
1.782531799999999933e+01 0.000000000000000000e+00 0.000000000000000000e+00 0.000000000000000000e+00 1.782531799999999933e+01 0.000000000000000000e+00 0.000000000000000000e+00 0.000000000000000000e+00 1.782531799999999933e+01
1.784903100000000009e+01 0.000000000000000000e+00 0.000000000000000000e+00 0.000000000000000000e+00 1.784903100000000009e+01 0.000000000000000000e+00 0.000000000000000000e+00 0.000000000000000000e+00 1.784903100000000009e+01
1.772824400000000011e+01 0.000000000000000000e+00 0.000000000000000000e+00 0.000000000000000000e+00 1.772824400000000011e+01 0.000000000000000000e+00 0.000000000000000000e+00 0.000000000000000000e+00 1.772824400000000011e+01
1.771441499999999891e+01 0.000000000000000000e+00 0.000000000000000000e+00 0.000000000000000000e+00 1.771441499999999891e+01 0.000000000000000000e+00 0.000000000000000000e+00 0.000000000000000000e+00 1.771441499999999891e+01
1.774669899999999956e+01 0.000000000000000000e+00 0.000000000000000000e+00 0.000000000000000000e+00 1.774669899999999956e+01 0.000000000000000000e+00 0.000000000000000000e+00 0.000000000000000000e+00 1.774669899999999956e+01
1.774750299999999825e+01 0.000000000000000000e+00 0.000000000000000000e+00 0.000000000000000000e+00 1.774750299999999825e+01 0.000000000000000000e+00 0.000000000000000000e+00 0.000000000000000000e+00 1.774750299999999825e+01
1.785598099999999988e+01 0.000000000000000000e+00 0.000000000000000000e+00 0.000000000000000000e+00 1.785598099999999988e+01 0.000000000000000000e+00 0.000000000000000000e+00 0.000000000000000000e+00 1.785598099999999988e+01
1.781687200000000004e+01 0.000000000000000000e+00 0.000000000000000000e+00 0.000000000000000000e+00 1.781687200000000004e+01 0.000000000000000000e+00 0.000000000000000000e+00 0.000000000000000000e+00 1.781687200000000004e+01
1.777997099999999975e+01 0.000000000000000000e+00 0.000000000000000000e+00 0.000000000000000000e+00 1.777997099999999975e+01 0.000000000000000000e+00 0.000000000000000000e+00 0.000000000000000000e+00 1.777997099999999975e+01
1.772486299999999915e+01 0.000000000000000000e+00 0.000000000000000000e+00 0.000000000000000000e+00 1.772486299999999915e+01 0.000000000000000000e+00 0.000000000000000000e+00 0.000000000000000000e+00 1.772486299999999915e+01
1.782166199999999989e+01 0.000000000000000000e+00 0.000000000000000000e+00 0.000000000000000000e+00 1.782166199999999989e+01 0.000000000000000000e+00 0.000000000000000000e+00 0.000000000000000000e+00 1.782166199999999989e+01
1.780168899999999965e+01 0.000000000000000000e+00 0.000000000000000000e+00 0.000000000000000000e+00 1.780168899999999965e+01 0.000000000000000000e+00 0.000000000000000000e+00 0.000000000000000000e+00 1.780168899999999965e+01
1.771277299999999855e+01 0.000000000000000000e+00 0.000000000000000000e+00 0.000000000000000000e+00 1.771277299999999855e+01 0.000000000000000000e+00 0.000000000000000000e+00 0.000000000000000000e+00 1.771277299999999855e+01
1.772943400000000125e+01 0.000000000000000000e+00 0.000000000000000000e+00 0.000000000000000000e+00 1.772943400000000125e+01 0.000000000000000000e+00 0.000000000000000000e+00 0.000000000000000000e+00 1.772943400000000125e+01
1.774750900000000087e+01 0.000000000000000000e+00 0.000000000000000000e+00 0.000000000000000000e+00 1.774750900000000087e+01 0.000000000000000000e+00 0.000000000000000000e+00 0.000000000000000000e+00 1.774750900000000087e+01
1.758999599999999930e+01 0.000000000000000000e+00 0.000000000000000000e+00 0.000000000000000000e+00 1.758999599999999930e+01 0.000000000000000000e+00 0.000000000000000000e+00 0.000000000000000000e+00 1.758999599999999930e+01
1.768987600000000171e+01 0.000000000000000000e+00 0.000000000000000000e+00 0.000000000000000000e+00 1.768987600000000171e+01 0.000000000000000000e+00 0.000000000000000000e+00 0.000000000000000000e+00 1.768987600000000171e+01
1.768573200000000156e+01 0.000000000000000000e+00 0.000000000000000000e+00 0.000000000000000000e+00 1.768573200000000156e+01 0.000000000000000000e+00 0.000000000000000000e+00 0.000000000000000000e+00 1.768573200000000156e+01
1.761321900000000085e+01 0.000000000000000000e+00 0.000000000000000000e+00 0.000000000000000000e+00 1.761321900000000085e+01 0.000000000000000000e+00 0.000000000000000000e+00 0.000000000000000000e+00 1.761321900000000085e+01
1.775237600000000171e+01 0.000000000000000000e+00 0.000000000000000000e+00 0.000000000000000000e+00 1.775237600000000171e+01 0.000000000000000000e+00 0.000000000000000000e+00 0.000000000000000000e+00 1.775237600000000171e+01