1.699500499999999903e+01 0.000000000000000000e+00 0.000000000000000000e+00 0.000000000000000000e+00 1.699500499999999903e+01 0.000000000000000000e+00 0.000000000000000000e+00 0.000000000000000000e+00 1.699500499999999903e+01
1.697218600000000066e+01 0.000000000000000000e+00 0.000000000000000000e+00 0.000000000000000000e+00 1.697218600000000066e+01 0.000000000000000000e+00 0.000000000000000000e+00 0.000000000000000000e+00 1.697218600000000066e+01
1.703973299999999824e+01 0.000000000000000000e+00 0.000000000000000000e+00 0.000000000000000000e+00 1.703973299999999824e+01 0.000000000000000000e+00 0.000000000000000000e+00 0.000000000000000000e+00 1.703973299999999824e+01
1.706083599999999834e+01 0.000000000000000000e+00 0.000000000000000000e+00 0.000000000000000000e+00 1.706083599999999834e+01 0.000000000000000000e+00 0.000000000000000000e+00 0.000000000000000000e+00 1.706083599999999834e+01
1.704014300000000048e+01 0.000000000000000000e+00 0.000000000000000000e+00 0.000000000000000000e+00 1.704014300000000048e+01 0.000000000000000000e+00 0.000000000000000000e+00 0.000000000000000000e+00 1.704014300000000048e+01
1.719697499999999835e+01 0.000000000000000000e+00 0.000000000000000000e+00 0.000000000000000000e+00 1.719697499999999835e+01 0.000000000000000000e+00 0.000000000000000000e+00 0.000000000000000000e+00 1.719697499999999835e+01
1.724215099999999978e+01 0.000000000000000000e+00 0.000000000000000000e+00 0.000000000000000000e+00 1.724215099999999978e+01 0.000000000000000000e+00 0.000000000000000000e+00 0.000000000000000000e+00 1.724215099999999978e+01
1.725409700000000157e+01 0.000000000000000000e+00 0.000000000000000000e+00 0.000000000000000000e+00 1.725409700000000157e+01 0.000000000000000000e+00 0.000000000000000000e+00 0.000000000000000000e+00 1.725409700000000157e+01
1.718651399999999896e+01 0.000000000000000000e+00 0.000000000000000000e+00 0.000000000000000000e+00 1.718651399999999896e+01 0.000000000000000000e+00 0.000000000000000000e+00 0.000000000000000000e+00 1.718651399999999896e+01
1.713567099999999854e+01 0.000000000000000000e+00 0.000000000000000000e+00 0.000000000000000000e+00 1.713567099999999854e+01 0.000000000000000000e+00 0.000000000000000000e+00 0.000000000000000000e+00 1.713567099999999854e+01
1.726105899999999949e+01 0.000000000000000000e+00 0.000000000000000000e+00 0.000000000000000000e+00 1.726105899999999949e+01 0.000000000000000000e+00 0.000000000000000000e+00 0.000000000000000000e+00 1.726105899999999949e+01
1.731586499999999873e+01 0.000000000000000000e+00 0.000000000000000000e+00 0.000000000000000000e+00 1.731586499999999873e+01 0.000000000000000000e+00 0.000000000000000000e+00 0.000000000000000000e+00 1.731586499999999873e+01
1.710409100000000038e+01 0.000000000000000000e+00 0.000000000000000000e+00 0.000000000000000000e+00 1.710409100000000038e+01 0.000000000000000000e+00 0.000000000000000000e+00 0.000000000000000000e+00 1.710409100000000038e+01
1.701246099999999828e+01 0.000000000000000000e+00 0.000000000000000000e+00 0.000000000000000000e+00 1.701246099999999828e+01 0.000000000000000000e+00 0.000000000000000000e+00 0.000000000000000000e+00 1.701246099999999828e+01
1.717377700000000118e+01 0.000000000000000000e+00 0.000000000000000000e+00 0.000000000000000000e+00 1.717377700000000118e+01 0.000000000000000000e+00 0.000000000000000000e+00 0.000000000000000000e+00 1.717377700000000118e+01
1.719853000000000165e+01 0.000000000000000000e+00 0.000000000000000000e+00 0.000000000000000000e+00 1.719853000000000165e+01 0.000000000000000000e+00 0.000000000000000000e+00 0.000000000000000000e+00 1.719853000000000165e+01
1.721642200000000145e+01 0.000000000000000000e+00 0.000000000000000000e+00 0.000000000000000000e+00 1.721642200000000145e+01 0.000000000000000000e+00 0.000000000000000000e+00 0.000000000000000000e+00 1.721642200000000145e+01
1.719277900000000159e+01 0.000000000000000000e+00 0.000000000000000000e+00 0.000000000000000000e+00 1.719277900000000159e+01 0.000000000000000000e+00 0.000000000000000000e+00 0.000000000000000000e+00 1.719277900000000159e+01
1.718088799999999949e+01 0.000000000000000000e+00 0.000000000000000000e+00 0.000000000000000000e+00 1.718088799999999949e+01 0.000000000000000000e+00 0.000000000000000000e+00 0.000000000000000000e+00 1.718088799999999949e+01
1.726082999999999856e+01 0.000000000000000000e+00 0.000000000000000000e+00 0.000000000000000000e+00 1.726082999999999856e+01 0.000000000000000000e+00 0.000000000000000000e+00 0.000000000000000000e+00 1.726082999999999856e+01
1.712841600000000142e+01 0.000000000000000000e+00 0.000000000000000000e+00 0.000000000000000000e+00 1.712841600000000142e+01 0.000000000000000000e+00 0.000000000000000000e+00 0.000000000000000000e+00 1.712841600000000142e+01
1.710021400000000114e+01 0.000000000000000000e+00 0.000000000000000000e+00 0.000000000000000000e+00 1.710021400000000114e+01 0.000000000000000000e+00 0.000000000000000000e+00 0.000000000000000000e+00 1.710021400000000114e+01
1.700463600000000142e+01 0.000000000000000000e+00 0.000000000000000000e+00 0.000000000000000000e+00 1.700463600000000142e+01 0.000000000000000000e+00 0.000000000000000000e+00 0.000000000000000000e+00 1.700463600000000142e+01
1.696870900000000049e+01 0.000000000000000000e+00 0.000000000000000000e+00 0.000000000000000000e+00 1.696870900000000049e+01 0.000000000000000000e+00 0.000000000000000000e+00 0.000000000000000000e+00 1.696870900000000049e+01
1.703314100000000053e+01 0.000000000000000000e+00 0.000000000000000000e+00 0.000000000000000000e+00 1.703314100000000053e+01 0.000000000000000000e+00 0.000000000000000000e+00 0.000000000000000000e+00 1.703314100000000053e+01
1.700062700000000149e+01 0.000000000000000000e+00 0.000000000000000000e+00 0.000000000000000000e+00 1.700062700000000149e+01 0.000000000000000000e+00 0.000000000000000000e+00 0.000000000000000000e+00 1.700062700000000149e+01
1.705611000000000033e+01 0.000000000000000000e+00 0.000000000000000000e+00 0.000000000000000000e+00 1.705611000000000033e+01 0.000000000000000000e+00 0.000000000000000000e+00 0.000000000000000000e+00 1.705611000000000033e+01
1.718824299999999994e+01 0.000000000000000000e+00 0.000000000000000000e+00 0.000000000000000000e+00 1.718824299999999994e+01 0.000000000000000000e+00 0.000000000000000000e+00 0.000000000000000000e+00 1.718824299999999994e+01
1.692486099999999993e+01 0.000000000000000000e+00 0.000000000000000000e+00 0.000000000000000000e+00 1.692486099999999993e+01 0.000000000000000000e+00 0.000000000000000000e+00 0.000000000000000000e+00 1.692486099999999993e+01
1.707019599999999926e+01 0.000000000000000000e+00 0.000000000000000000e+00 0.000000000000000000e+00 1.707019599999999926e+01 0.000000000000000000e+00 0.000000000000000000e+00 0.000000000000000000e+00 1.707019599999999926e+01
1.709069300000000169e+01 0.000000000000000000e+00 0.000000000000000000e+00 0.000000000000000000e+00 1.709069300000000169e+01 0.000000000000000000e+00 0.000000000000000000e+00 0.000000000000000000e+00 1.709069300000000169e+01
1.706059099999999873e+01 0.000000000000000000e+00 0.000000000000000000e+00 0.000000000000000000e+00 1.706059099999999873e+01 0.000000000000000000e+00 0.000000000000000000e+00 0.000000000000000000e+00 1.706059099999999873e+01
1.717216900000000024e+01 0.000000000000000000e+00 0.000000000000000000e+00 0.000000000000000000e+00 1.717216900000000024e+01 0.000000000000000000e+00 0.000000000000000000e+00 0.000000000000000000e+00 1.717216900000000024e+01
1.722635199999999855e+01 0.000000000000000000e+00 0.000000000000000000e+00 0.000000000000000000e+00 1.722635199999999855e+01 0.000000000000000000e+00 0.000000000000000000e+00 0.000000000000000000e+00 1.722635199999999855e+01
1.728220100000000059e+01 0.000000000000000000e+00 0.000000000000000000e+00 0.000000000000000000e+00 1.728220100000000059e+01 0.000000000000000000e+00 0.000000000000000000e+00 0.000000000000000000e+00 1.728220100000000059e+01
1.697591900000000109e+01 0.000000000000000000e+00 0.000000000000000000e+00 0.000000000000000000e+00 1.697591900000000109e+01 0.000000000000000000e+00 0.000000000000000000e+00 0.000000000000000000e+00 1.697591900000000109e+01
1.696933599999999842e+01 0.000000000000000000e+00 0.000000000000000000e+00 0.000000000000000000e+00 1.696933599999999842e+01 0.000000000000000000e+00 0.000000000000000000e+00 0.000000000000000000e+00 1.696933599999999842e+01
1.688745899999999978e+01 0.000000000000000000e+00 0.000000000000000000e+00 0.000000000000000000e+00 1.688745899999999978e+01 0.000000000000000000e+00 0.000000000000000000e+00 0.000000000000000000e+00 1.688745899999999978e+01
1.697443900000000028e+01 0.000000000000000000e+00 0.000000000000000000e+00 0.000000000000000000e+00 1.697443900000000028e+01 0.000000000000000000e+00 0.000000000000000000e+00 0.000000000000000000e+00 1.697443900000000028e+01
1.698776499999999956e+01 0.000000000000000000e+00 0.000000000000000000e+00 0.000000000000000000e+00 1.698776499999999956e+01 0.000000000000000000e+00 0.000000000000000000e+00 0.000000000000000000e+00 1.698776499999999956e+01
1.697381700000000038e+01 0.000000000000000000e+00 0.000000000000000000e+00 0.000000000000000000e+00 1.697381700000000038e+01 0.000000000000000000e+00 0.000000000000000000e+00 0.000000000000000000e+00 1.697381700000000038e+01
1.690464100000000158e+01 0.000000000000000000e+00 0.000000000000000000e+00 0.000000000000000000e+00 1.690464100000000158e+01 0.000000000000000000e+00 0.000000000000000000e+00 0.000000000000000000e+00 1.690464100000000158e+01
1.686936800000000147e+01 0.000000000000000000e+00 0.000000000000000000e+00 0.000000000000000000e+00 1.686936800000000147e+01 0.000000000000000000e+00 0.000000000000000000e+00 0.000000000000000000e+00 1.686936800000000147e+01
1.698787300000000045e+01 0.000000000000000000e+00 0.000000000000000000e+00 0.000000000000000000e+00 1.698787300000000045e+01 0.000000000000000000e+00 0.000000000000000000e+00 0.000000000000000000e+00 1.698787300000000045e+01
1.703684700000000163e+01 0.000000000000000000e+00 0.000000000000000000e+00 0.000000000000000000e+00 1.703684700000000163e+01 0.000000000000000000e+00 0.000000000000000000e+00 0.000000000000000000e+00 1.703684700000000163e+01
1.697523500000000141e+01 0.000000000000000000e+00 0.000000000000000000e+00 0.000000000000000000e+00 1.697523500000000141e+01 0.000000000000000000e+00 0.000000000000000000e+00 0.000000000000000000e+00 1.697523500000000141e+01
1.702310200000000151e+01 0.000000000000000000e+00 0.000000000000000000e+00 0.000000000000000000e+00 1.702310200000000151e+01 0.000000000000000000e+00 0.000000000000000000e+00 0.000000000000000000e+00 1.702310200000000151e+01
1.696570200000000028e+01 0.000000000000000000e+00 0.000000000000000000e+00 0.000000000000000000e+00 1.696570200000000028e+01 0.000000000000000000e+00 0.000000000000000000e+00 0.000000000000000000e+00 1.696570200000000028e+01
1.696949000000000041e+01 0.000000000000000000e+00 0.000000000000000000e+00 0.000000000000000000e+00 1.696949000000000041e+01 0.000000000000000000e+00 0.000000000000000000e+00 0.000000000000000000e+00 1.696949000000000041e+01
1.696535899999999941e+01 0.000000000000000000e+00 0.000000000000000000e+00 0.000000000000000000e+00 1.696535899999999941e+01 0.000000000000000000e+00 0.000000000000000000e+00 0.000000000000000000e+00 1.696535899999999941e+01
1.698460199999999887e+01 0.000000000000000000e+00 0.000000000000000000e+00 0.000000000000000000e+00 1.698460199999999887e+01 0.000000000000000000e+00 0.000000000000000000e+00 0.000000000000000000e+00 1.698460199999999887e+01
1.703380599999999845e+01 0.000000000000000000e+00 0.000000000000000000e+00 0.000000000000000000e+00 1.703380599999999845e+01 0.000000000000000000e+00 0.000000000000000000e+00 0.000000000000000000e+00 1.703380599999999845e+01
1.695989900000000006e+01 0.000000000000000000e+00 0.000000000000000000e+00 0.000000000000000000e+00 1.695989900000000006e+01 0.000000000000000000e+00 0.000000000000000000e+00 0.000000000000000000e+00 1.695989900000000006e+01
1.702710599999999985e+01 0.000000000000000000e+00 0.000000000000000000e+00 0.000000000000000000e+00 1.702710599999999985e+01 0.000000000000000000e+00 0.000000000000000000e+00 0.000000000000000000e+00 1.702710599999999985e+01
1.721601799999999827e+01 0.000000000000000000e+00 0.000000000000000000e+00 0.000000000000000000e+00 1.721601799999999827e+01 0.000000000000000000e+00 0.000000000000000000e+00 0.000000000000000000e+00 1.721601799999999827e+01
1.718033499999999947e+01 0.000000000000000000e+00 0.000000000000000000e+00 0.000000000000000000e+00 1.718033499999999947e+01 0.000000000000000000e+00 0.000000000000000000e+00 0.000000000000000000e+00 1.718033499999999947e+01
1.714077800000000096e+01 0.000000000000000000e+00 0.000000000000000000e+00 0.000000000000000000e+00 1.714077800000000096e+01 0.000000000000000000e+00 0.000000000000000000e+00 0.000000000000000000e+00 1.714077800000000096e+01
1.706817300000000159e+01 0.000000000000000000e+00 0.000000000000000000e+00 0.000000000000000000e+00 1.706817300000000159e+01 0.000000000000000000e+00 0.000000000000000000e+00 0.000000000000000000e+00 1.706817300000000159e+01
1.705046899999999965e+01 0.000000000000000000e+00 0.000000000000000000e+00 0.000000000000000000e+00 1.705046899999999965e+01 0.000000000000000000e+00 0.000000000000000000e+00 0.000000000000000000e+00 1.705046899999999965e+01
1.706228899999999982e+01 0.000000000000000000e+00 0.000000000000000000e+00 0.000000000000000000e+00 1.706228899999999982e+01 0.000000000000000000e+00 0.000000000000000000e+00 0.000000000000000000e+00 1.706228899999999982e+01
1.700418900000000022e+01 0.000000000000000000e+00 0.000000000000000000e+00 0.000000000000000000e+00 1.700418900000000022e+01 0.000000000000000000e+00 0.000000000000000000e+00 0.000000000000000000e+00 1.700418900000000022e+01
1.705814000000000163e+01 0.000000000000000000e+00 0.000000000000000000e+00 0.000000000000000000e+00 1.705814000000000163e+01 0.000000000000000000e+00 0.000000000000000000e+00 0.000000000000000000e+00 1.705814000000000163e+01
1.700552100000000166e+01 0.000000000000000000e+00 0.000000000000000000e+00 0.000000000000000000e+00 1.700552100000000166e+01 0.000000000000000000e+00 0.000000000000000000e+00 0.000000000000000000e+00 1.700552100000000166e+01
1.704006400000000099e+01 0.000000000000000000e+00 0.000000000000000000e+00 0.000000000000000000e+00 1.704006400000000099e+01 0.000000000000000000e+00 0.000000000000000000e+00 0.000000000000000000e+00 1.704006400000000099e+01
1.698548299999999855e+01 0.000000000000000000e+00 0.000000000000000000e+00 0.000000000000000000e+00 1.698548299999999855e+01 0.000000000000000000e+00 0.000000000000000000e+00 0.000000000000000000e+00 1.698548299999999855e+01
1.702098600000000062e+01 0.000000000000000000e+00 0.000000000000000000e+00 0.000000000000000000e+00 1.702098600000000062e+01 0.000000000000000000e+00 0.000000000000000000e+00 0.000000000000000000e+00 1.702098600000000062e+01
1.706611300000000142e+01 0.000000000000000000e+00 0.000000000000000000e+00 0.000000000000000000e+00 1.706611300000000142e+01 0.000000000000000000e+00 0.000000000000000000e+00 0.000000000000000000e+00 1.706611300000000142e+01
1.694946699999999851e+01 0.000000000000000000e+00 0.000000000000000000e+00 0.000000000000000000e+00 1.694946699999999851e+01 0.000000000000000000e+00 0.000000000000000000e+00 0.000000000000000000e+00 1.694946699999999851e+01
1.716326300000000060e+01 0.000000000000000000e+00 0.000000000000000000e+00 0.000000000000000000e+00 1.716326300000000060e+01 0.000000000000000000e+00 0.000000000000000000e+00 0.000000000000000000e+00 1.716326300000000060e+01
1.698497199999999907e+01 0.000000000000000000e+00 0.000000000000000000e+00 0.000000000000000000e+00 1.698497199999999907e+01 0.000000000000000000e+00 0.000000000000000000e+00 0.000000000000000000e+00 1.698497199999999907e+01
1.707145399999999924e+01 0.000000000000000000e+00 0.000000000000000000e+00 0.000000000000000000e+00 1.707145399999999924e+01 0.000000000000000000e+00 0.000000000000000000e+00 0.000000000000000000e+00 1.707145399999999924e+01
1.713386300000000162e+01 0.000000000000000000e+00 0.000000000000000000e+00 0.000000000000000000e+00 1.713386300000000162e+01 0.000000000000000000e+00 0.000000000000000000e+00 0.000000000000000000e+00 1.713386300000000162e+01
1.712909399999999849e+01 0.000000000000000000e+00 0.000000000000000000e+00 0.000000000000000000e+00 1.712909399999999849e+01 0.000000000000000000e+00 0.000000000000000000e+00 0.000000000000000000e+00 1.712909399999999849e+01
1.695825400000000016e+01 0.000000000000000000e+00 0.000000000000000000e+00 0.000000000000000000e+00 1.695825400000000016e+01 0.000000000000000000e+00 0.000000000000000000e+00 0.000000000000000000e+00 1.695825400000000016e+01
1.698998900000000134e+01 0.000000000000000000e+00 0.000000000000000000e+00 0.000000000000000000e+00 1.698998900000000134e+01 0.000000000000000000e+00 0.000000000000000000e+00 0.000000000000000000e+00 1.698998900000000134e+01
1.692670700000000039e+01 0.000000000000000000e+00 0.000000000000000000e+00 0.000000000000000000e+00 1.692670700000000039e+01 0.000000000000000000e+00 0.000000000000000000e+00 0.000000000000000000e+00 1.692670700000000039e+01
1.695456899999999933e+01 0.000000000000000000e+00 0.000000000000000000e+00 0.000000000000000000e+00 1.695456899999999933e+01 0.000000000000000000e+00 0.000000000000000000e+00 0.000000000000000000e+00 1.695456899999999933e+01
1.704943300000000050e+01 0.000000000000000000e+00 0.000000000000000000e+00 0.000000000000000000e+00 1.704943300000000050e+01 0.000000000000000000e+00 0.000000000000000000e+00 0.000000000000000000e+00 1.704943300000000050e+01
1.711818699999999893e+01 0.000000000000000000e+00 0.000000000000000000e+00 0.000000000000000000e+00 1.711818699999999893e+01 0.000000000000000000e+00 0.000000000000000000e+00 0.000000000000000000e+00 1.711818699999999893e+01
1.687835499999999911e+01 0.000000000000000000e+00 0.000000000000000000e+00 0.000000000000000000e+00 1.687835499999999911e+01 0.000000000000000000e+00 0.000000000000000000e+00 0.000000000000000000e+00 1.687835499999999911e+01
1.712274000000000029e+01 0.000000000000000000e+00 0.000000000000000000e+00 0.000000000000000000e+00 1.712274000000000029e+01 0.000000000000000000e+00 0.000000000000000000e+00 0.000000000000000000e+00 1.712274000000000029e+01
1.727013799999999932e+01 0.000000000000000000e+00 0.000000000000000000e+00 0.000000000000000000e+00 1.727013799999999932e+01 0.000000000000000000e+00 0.000000000000000000e+00 0.000000000000000000e+00 1.727013799999999932e+01
1.689313299999999884e+01 0.000000000000000000e+00 0.000000000000000000e+00 0.000000000000000000e+00 1.689313299999999884e+01 0.000000000000000000e+00 0.000000000000000000e+00 0.000000000000000000e+00 1.689313299999999884e+01
1.709399099999999905e+01 0.000000000000000000e+00 0.000000000000000000e+00 0.000000000000000000e+00 1.709399099999999905e+01 0.000000000000000000e+00 0.000000000000000000e+00 0.000000000000000000e+00 1.709399099999999905e+01
1.727226999999999890e+01 0.000000000000000000e+00 0.000000000000000000e+00 0.000000000000000000e+00 1.727226999999999890e+01 0.000000000000000000e+00 0.000000000000000000e+00 0.000000000000000000e+00 1.727226999999999890e+01
1.699133700000000147e+01 0.000000000000000000e+00 0.000000000000000000e+00 0.000000000000000000e+00 1.699133700000000147e+01 0.000000000000000000e+00 0.000000000000000000e+00 0.000000000000000000e+00 1.699133700000000147e+01
1.693549799999999905e+01 0.000000000000000000e+00 0.000000000000000000e+00 0.000000000000000000e+00 1.693549799999999905e+01 0.000000000000000000e+00 0.000000000000000000e+00 0.000000000000000000e+00 1.693549799999999905e+01
1.698728200000000044e+01 0.000000000000000000e+00 0.000000000000000000e+00 0.000000000000000000e+00 1.698728200000000044e+01 0.000000000000000000e+00 0.000000000000000000e+00 0.000000000000000000e+00 1.698728200000000044e+01
1.710851699999999909e+01 0.000000000000000000e+00 0.000000000000000000e+00 0.000000000000000000e+00 1.710851699999999909e+01 0.000000000000000000e+00 0.000000000000000000e+00 0.000000000000000000e+00 1.710851699999999909e+01
1.701714499999999930e+01 0.000000000000000000e+00 0.000000000000000000e+00 0.000000000000000000e+00 1.701714499999999930e+01 0.000000000000000000e+00 0.000000000000000000e+00 0.000000000000000000e+00 1.701714499999999930e+01
1.704807299999999870e+01 0.000000000000000000e+00 0.000000000000000000e+00 0.000000000000000000e+00 1.704807299999999870e+01 0.000000000000000000e+00 0.000000000000000000e+00 0.000000000000000000e+00 1.704807299999999870e+01
1.707967899999999872e+01 0.000000000000000000e+00 0.000000000000000000e+00 0.000000000000000000e+00 1.707967899999999872e+01 0.000000000000000000e+00 0.000000000000000000e+00 0.000000000000000000e+00 1.707967899999999872e+01
1.708607500000000101e+01 0.000000000000000000e+00 0.000000000000000000e+00 0.000000000000000000e+00 1.708607500000000101e+01 0.000000000000000000e+00 0.000000000000000000e+00 0.000000000000000000e+00 1.708607500000000101e+01
1.701379400000000075e+01 0.000000000000000000e+00 0.000000000000000000e+00 0.000000000000000000e+00 1.701379400000000075e+01 0.000000000000000000e+00 0.000000000000000000e+00 0.000000000000000000e+00 1.701379400000000075e+01
1.710002000000000066e+01 0.000000000000000000e+00 0.000000000000000000e+00 0.000000000000000000e+00 1.710002000000000066e+01 0.000000000000000000e+00 0.000000000000000000e+00 0.000000000000000000e+00 1.710002000000000066e+01
1.695181900000000041e+01 0.000000000000000000e+00 0.000000000000000000e+00 0.000000000000000000e+00 1.695181900000000041e+01 0.000000000000000000e+00 0.000000000000000000e+00 0.000000000000000000e+00 1.695181900000000041e+01
1.706871100000000041e+01 0.000000000000000000e+00 0.000000000000000000e+00 0.000000000000000000e+00 1.706871100000000041e+01 0.000000000000000000e+00 0.000000000000000000e+00 0.000000000000000000e+00 1.706871100000000041e+01
1.696379100000000051e+01 0.000000000000000000e+00 0.000000000000000000e+00 0.000000000000000000e+00 1.696379100000000051e+01 0.000000000000000000e+00 0.000000000000000000e+00 0.000000000000000000e+00 1.696379100000000051e+01
1.692556400000000139e+01 0.000000000000000000e+00 0.000000000000000000e+00 0.000000000000000000e+00 1.692556400000000139e+01 0.000000000000000000e+00 0.000000000000000000e+00 0.000000000000000000e+00 1.692556400000000139e+01
1.692682599999999837e+01 0.000000000000000000e+00 0.000000000000000000e+00 0.000000000000000000e+00 1.692682599999999837e+01 0.000000000000000000e+00 0.000000000000000000e+00 0.000000000000000000e+00 1.692682599999999837e+01
1.689134500000000116e+01 0.000000000000000000e+00 0.000000000000000000e+00 0.000000000000000000e+00 1.689134500000000116e+01 0.000000000000000000e+00 0.000000000000000000e+00 0.000000000000000000e+00 1.689134500000000116e+01
1.708084399999999903e+01 0.000000000000000000e+00 0.000000000000000000e+00 0.000000000000000000e+00 1.708084399999999903e+01 0.000000000000000000e+00 0.000000000000000000e+00 0.000000000000000000e+00 1.708084399999999903e+01
1.700948899999999853e+01 0.000000000000000000e+00 0.000000000000000000e+00 0.000000000000000000e+00 1.700948899999999853e+01 0.000000000000000000e+00 0.000000000000000000e+00 0.000000000000000000e+00 1.700948899999999853e+01
1.699145199999999889e+01 0.000000000000000000e+00 0.000000000000000000e+00 0.000000000000000000e+00 1.699145199999999889e+01 0.000000000000000000e+00 0.000000000000000000e+00 0.000000000000000000e+00 1.699145199999999889e+01
1.708998599999999968e+01 0.000000000000000000e+00 0.000000000000000000e+00 0.000000000000000000e+00 1.708998599999999968e+01 0.000000000000000000e+00 0.000000000000000000e+00 0.000000000000000000e+00 1.708998599999999968e+01
1.710225600000000057e+01 0.000000000000000000e+00 0.000000000000000000e+00 0.000000000000000000e+00 1.710225600000000057e+01 0.000000000000000000e+00 0.000000000000000000e+00 0.000000000000000000e+00 1.710225600000000057e+01
1.703249100000000027e+01 0.000000000000000000e+00 0.000000000000000000e+00 0.000000000000000000e+00 1.703249100000000027e+01 0.000000000000000000e+00 0.000000000000000000e+00 0.000000000000000000e+00 1.703249100000000027e+01
1.695695399999999964e+01 0.000000000000000000e+00 0.000000000000000000e+00 0.000000000000000000e+00 1.695695399999999964e+01 0.000000000000000000e+00 0.000000000000000000e+00 0.000000000000000000e+00 1.695695399999999964e+01
1.692714799999999897e+01 0.000000000000000000e+00 0.000000000000000000e+00 0.000000000000000000e+00 1.692714799999999897e+01 0.000000000000000000e+00 0.000000000000000000e+00 0.000000000000000000e+00 1.692714799999999897e+01
1.699186500000000066e+01 0.000000000000000000e+00 0.000000000000000000e+00 0.000000000000000000e+00 1.699186500000000066e+01 0.000000000000000000e+00 0.000000000000000000e+00 0.000000000000000000e+00 1.699186500000000066e+01
1.696371699999999905e+01 0.000000000000000000e+00 0.000000000000000000e+00 0.000000000000000000e+00 1.696371699999999905e+01 0.000000000000000000e+00 0.000000000000000000e+00 0.000000000000000000e+00 1.696371699999999905e+01
1.703757200000000083e+01 0.000000000000000000e+00 0.000000000000000000e+00 0.000000000000000000e+00 1.703757200000000083e+01 0.000000000000000000e+00 0.000000000000000000e+00 0.000000000000000000e+00 1.703757200000000083e+01
1.682750700000000066e+01 0.000000000000000000e+00 0.000000000000000000e+00 0.000000000000000000e+00 1.682750700000000066e+01 0.000000000000000000e+00 0.000000000000000000e+00 0.000000000000000000e+00 1.682750700000000066e+01
1.701995000000000147e+01 0.000000000000000000e+00 0.000000000000000000e+00 0.000000000000000000e+00 1.701995000000000147e+01 0.000000000000000000e+00 0.000000000000000000e+00 0.000000000000000000e+00 1.701995000000000147e+01
1.703758399999999895e+01 0.000000000000000000e+00 0.000000000000000000e+00 0.000000000000000000e+00 1.703758399999999895e+01 0.000000000000000000e+00 0.000000000000000000e+00 0.000000000000000000e+00 1.703758399999999895e+01
1.713985200000000120e+01 0.000000000000000000e+00 0.000000000000000000e+00 0.000000000000000000e+00 1.713985200000000120e+01 0.000000000000000000e+00 0.000000000000000000e+00 0.000000000000000000e+00 1.713985200000000120e+01
1.705068400000000040e+01 0.000000000000000000e+00 0.000000000000000000e+00 0.000000000000000000e+00 1.705068400000000040e+01 0.000000000000000000e+00 0.000000000000000000e+00 0.000000000000000000e+00 1.705068400000000040e+01
1.711977500000000063e+01 0.000000000000000000e+00 0.000000000000000000e+00 0.000000000000000000e+00 1.711977500000000063e+01 0.000000000000000000e+00 0.000000000000000000e+00 0.000000000000000000e+00 1.711977500000000063e+01
1.697440100000000029e+01 0.000000000000000000e+00 0.000000000000000000e+00 0.000000000000000000e+00 1.697440100000000029e+01 0.000000000000000000e+00 0.000000000000000000e+00 0.000000000000000000e+00 1.697440100000000029e+01
1.689284299999999917e+01 0.000000000000000000e+00 0.000000000000000000e+00 0.000000000000000000e+00 1.689284299999999917e+01 0.000000000000000000e+00 0.000000000000000000e+00 0.000000000000000000e+00 1.689284299999999917e+01
1.694871499999999997e+01 0.000000000000000000e+00 0.000000000000000000e+00 0.000000000000000000e+00 1.694871499999999997e+01 0.000000000000000000e+00 0.000000000000000000e+00 0.000000000000000000e+00 1.694871499999999997e+01
1.698299799999999848e+01 0.000000000000000000e+00 0.000000000000000000e+00 0.000000000000000000e+00 1.698299799999999848e+01 0.000000000000000000e+00 0.000000000000000000e+00 0.000000000000000000e+00 1.698299799999999848e+01
1.699213200000000157e+01 0.000000000000000000e+00 0.000000000000000000e+00 0.000000000000000000e+00 1.699213200000000157e+01 0.000000000000000000e+00 0.000000000000000000e+00 0.000000000000000000e+00 1.699213200000000157e+01
1.718863999999999947e+01 0.000000000000000000e+00 0.000000000000000000e+00 0.000000000000000000e+00 1.718863999999999947e+01 0.000000000000000000e+00 0.000000000000000000e+00 0.000000000000000000e+00 1.718863999999999947e+01
1.745101000000000013e+01 0.000000000000000000e+00 0.000000000000000000e+00 0.000000000000000000e+00 1.745101000000000013e+01 0.000000000000000000e+00 0.000000000000000000e+00 0.000000000000000000e+00 1.745101000000000013e+01
1.744277599999999850e+01 0.000000000000000000e+00 0.000000000000000000e+00 0.000000000000000000e+00 1.744277599999999850e+01 0.000000000000000000e+00 0.000000000000000000e+00 0.000000000000000000e+00 1.744277599999999850e+01
1.732363399999999842e+01 0.000000000000000000e+00 0.000000000000000000e+00 0.000000000000000000e+00 1.732363399999999842e+01 0.000000000000000000e+00 0.000000000000000000e+00 0.000000000000000000e+00 1.732363399999999842e+01
1.705618000000000123e+01 0.000000000000000000e+00 0.000000000000000000e+00 0.000000000000000000e+00 1.705618000000000123e+01 0.000000000000000000e+00 0.000000000000000000e+00 0.000000000000000000e+00 1.705618000000000123e+01
1.699057900000000032e+01 0.000000000000000000e+00 0.000000000000000000e+00 0.000000000000000000e+00 1.699057900000000032e+01 0.000000000000000000e+00 0.000000000000000000e+00 0.000000000000000000e+00 1.699057900000000032e+01
1.699823299999999904e+01 0.000000000000000000e+00 0.000000000000000000e+00 0.000000000000000000e+00 1.699823299999999904e+01 0.000000000000000000e+00 0.000000000000000000e+00 0.000000000000000000e+00 1.699823299999999904e+01
1.694444599999999923e+01 0.000000000000000000e+00 0.000000000000000000e+00 0.000000000000000000e+00 1.694444599999999923e+01 0.000000000000000000e+00 0.000000000000000000e+00 0.000000000000000000e+00 1.694444599999999923e+01
1.685258999999999929e+01 0.000000000000000000e+00 0.000000000000000000e+00 0.000000000000000000e+00 1.685258999999999929e+01 0.000000000000000000e+00 0.000000000000000000e+00 0.000000000000000000e+00 1.685258999999999929e+01
1.702466099999999827e+01 0.000000000000000000e+00 0.000000000000000000e+00 0.000000000000000000e+00 1.702466099999999827e+01 0.000000000000000000e+00 0.000000000000000000e+00 0.000000000000000000e+00 1.702466099999999827e+01